/*--------------------------------*- C++ -*----------------------------------*\
| =========                 |                                                 |
| \\      /  F ield         | OpenFOAM: The Open Source CFD Toolbox           |
|  \\    /   O peration     | Version:  splitCyclic                           |
|   \\  /    A nd           | Web:      www.OpenFOAM.org                      |
|    \\/     M anipulation  |                                                 |
\*---------------------------------------------------------------------------*/
FoamFile
{
    version     2.0;
    format      ascii;
    class       volScalarField;
    location    "0";
    object      p;
}
// * * * * * * * * * * * * * * * * * * * * * * * * * * * * * * * * * * * * * //

dimensions      [ 0 2 -2 0 0 0 0 ];

internalField   nonuniform List<scalar> 
60000
(
-2.24121e-06
3.66829e-05
5.51852e-05
8.27875e-05
0.000109651
9.37601e-05
4.18592e-05
4.10617e-07
2.07343e-05
9.46368e-05
0.000153418
0.000161051
0.000125812
8.1275e-05
4.11299e-05
-1.18302e-05
-6.71346e-05
-0.000101105
-0.000109735
-8.55027e-05
-2.64711e-05
3.18248e-05
5.89791e-05
5.45674e-05
2.36595e-05
1.18326e-05
7.4957e-05
0.000156697
0.000176106
0.000157264
0.000147723
0.000145418
0.000126794
8.82397e-05
4.36963e-05
-2.01065e-05
-0.000112875
-0.000177727
-0.000163317
-8.86086e-05
-7.24045e-06
3.42284e-05
5.30502e-05
8.05655e-05
0.000107708
9.24116e-05
4.07266e-05
-1.26435e-06
1.83378e-05
9.25063e-05
0.000152248
0.000160587
0.000125759
8.16207e-05
4.19246e-05
-1.08323e-05
-6.63881e-05
-0.000100809
-0.000109802
-8.57969e-05
-2.68107e-05
3.14201e-05
5.82653e-05
5.36042e-05
2.22693e-05
9.52927e-06
7.24498e-05
0.000155322
0.000175782
0.000157485
0.00014878
0.000147661
0.000129997
9.18544e-05
4.7261e-05
-1.71222e-05
-0.000111458
-0.000178598
-0.000166071
-9.21548e-05
-1.09968e-05
3.3006e-05
5.20414e-05
7.94564e-05
0.000106901
9.17026e-05
3.93269e-05
-3.78909e-06
1.548e-05
9.1214e-05
0.0001528
0.000161718
0.000126772
8.25193e-05
4.27557e-05
-1.04016e-05
-6.67293e-05
-0.000101764
-0.000110895
-8.67266e-05
-2.75487e-05
3.05357e-05
5.69411e-05
5.19855e-05
1.97651e-05
5.67687e-06
6.89843e-05
0.000154079
0.000175946
0.000157956
0.00014981
0.000149204
0.000131
9.15827e-05
4.61151e-05
-1.88642e-05
-0.000114818
-0.000183817
-0.000171565
-9.63279e-05
-1.51285e-05
3.16625e-05
5.09311e-05
7.82524e-05
0.000106234
9.13098e-05
3.78707e-05
-7.40855e-06
1.0744e-05
8.8755e-05
0.000153623
0.00016376
0.000128634
8.40365e-05
4.39966e-05
-9.93358e-06
-6.75255e-05
-0.000103455
-0.00011267
-8.81223e-05
-2.87574e-05
2.87428e-05
5.4302e-05
4.91926e-05
1.60974e-05
1.65504e-07
6.39894e-05
0.000152161
0.00017577
0.000158268
0.000151387
0.000151787
0.000132244
8.98282e-05
4.2209e-05
-2.39385e-05
-0.000122052
-0.000193005
-0.000180167
-0.000102284
-2.00936e-05
2.96099e-05
4.90526e-05
7.61492e-05
0.00010495
9.07627e-05
3.71168e-05
-9.79912e-06
5.81984e-06
8.50336e-05
0.000154112
0.000166508
0.00013145
8.63194e-05
4.57373e-05
-9.36915e-06
-6.87084e-05
-0.000105766
-0.000114947
-8.96765e-05
-2.99796e-05
2.62622e-05
4.98917e-05
4.43516e-05
1.10796e-05
-6.07363e-06
5.8641e-05
0.00015056
0.000175826
0.000158272
0.000153198
0.000155898
0.000135336
8.86635e-05
3.75788e-05
-3.07914e-05
-0.000132185
-0.000205533
-0.000191542
-0.000110076
-2.70687e-05
2.48283e-05
4.45055e-05
7.19207e-05
0.000101433
8.86423e-05
3.70124e-05
-9.62343e-06
3.40654e-06
8.1438e-05
0.000153167
0.000169094
0.000135098
8.9533e-05
4.83687e-05
-8.1686e-06
-6.98695e-05
-0.000108636
-0.00011785
-9.14054e-05
-3.11558e-05
2.28321e-05
4.28711e-05
3.66936e-05
3.83595e-06
-1.36374e-05
5.3303e-05
0.000149624
0.000176275
0.000158332
0.000155108
0.000161743
0.000142504
9.26779e-05
3.78842e-05
-3.39836e-05
-0.000141726
-0.000219766
-0.000204969
-0.000119897
-3.5366e-05
1.86965e-05
3.57963e-05
6.2422e-05
9.44785e-05
8.34567e-05
3.46296e-05
-8.12013e-06
4.60863e-06
8.05777e-05
0.000152251
0.000170521
0.000139181
9.394e-05
5.21952e-05
-6.06778e-06
-7.09481e-05
-0.000112654
-0.000123283
-9.5843e-05
-3.2978e-05
1.98978e-05
3.31316e-05
2.27466e-05
-9.44958e-06
-2.49164e-05
4.56124e-05
0.000147819
0.00017826
0.000160318
0.000157538
0.000166995
0.000150361
0.000101224
4.77997e-05
-2.41818e-05
-0.000141821
-0.000232776
-0.000222976
-0.000133901
-4.78536e-05
1.26041e-05
2.77019e-05
4.95086e-05
8.26574e-05
7.47541e-05
2.95075e-05
-9.28065e-06
4.03761e-06
8.09458e-05
0.000152398
0.000171555
0.000143711
9.94227e-05
5.68252e-05
-3.29346e-06
-7.20314e-05
-0.000118084
-0.000132015
-0.000104416
-3.55582e-05
2.19967e-05
2.96993e-05
1.00026e-05
-2.73681e-05
-4.24213e-05
3.35227e-05
0.00014095
0.000173093
0.000158283
0.000160913
0.00017262
0.000154588
0.000105025
5.89196e-05
-2.15184e-06
-0.000125229
-0.000236467
-0.000243467
-0.000156142
-6.51348e-05
4.05662e-06
1.84188e-05
3.60051e-05
6.81504e-05
6.48068e-05
2.22554e-05
-1.23421e-05
-1.78538e-06
7.40293e-05
0.000151056
0.000171553
0.000147508
0.000107504
6.42868e-05
2.65592e-07
-7.35477e-05
-0.000123454
-0.000139099
-0.000110175
-3.21503e-05
3.61639e-05
3.87261e-05
2.20015e-06
-4.74723e-05
-6.32461e-05
2.0331e-05
0.000136309
0.000169383
0.000150925
0.000156012
0.000172429
0.000153495
0.00010037
6.05684e-05
2.04501e-05
-9.62679e-05
-0.000229101
-0.000260393
-0.000183284
-8.83967e-05
-5.21459e-06
8.18124e-06
2.16123e-05
5.15629e-05
5.25e-05
1.36192e-05
-1.88183e-05
-9.56438e-06
5.75167e-05
0.000136942
0.000163955
0.000146672
0.000113971
7.40646e-05
6.71048e-06
-7.41746e-05
-0.000127374
-0.000139526
-0.000104296
-1.51879e-05
6.84707e-05
6.8421e-05
8.02707e-06
-6.37032e-05
-8.44253e-05
3.59616e-06
0.00012616
0.000162315
0.000143361
0.0001506
0.000169726
0.000149351
9.17245e-05
5.2802e-05
3.58719e-05
-5.95371e-05
-0.000208706
-0.000270456
-0.000213036
-0.000119197
-1.82432e-05
1.70697e-06
1.14306e-05
3.93209e-05
4.37846e-05
8.76255e-06
-2.57294e-05
-1.99584e-05
3.97285e-05
0.000114294
0.000141967
0.00012742
0.000107748
8.27786e-05
1.88362e-05
-7.04894e-05
-0.000130364
-0.000137587
-9.07429e-05
1.29019e-05
0.000116951
0.000119043
3.24779e-05
-6.4644e-05
-9.47992e-05
-1.30464e-05
0.000106113
0.000143377
0.000125279
0.00013913
0.0001658
0.000146518
8.72358e-05
4.59217e-05
4.33303e-05
-1.81987e-05
-0.000169948
-0.000264659
-0.000236799
-0.000145147
-3.57373e-05
-2.18933e-06
5.66987e-06
2.99832e-05
3.72394e-05
6.11542e-06
-2.59346e-05
-2.45362e-05
2.65585e-05
8.99782e-05
0.000114661
9.53513e-05
7.89399e-05
7.18225e-05
2.74589e-05
-5.52453e-05
-0.000119224
-0.000128719
-7.62606e-05
3.78943e-05
0.000168285
0.000190329
8.57373e-05
-3.88697e-05
-8.66723e-05
-2.63074e-05
7.51819e-05
0.000116496
0.00010732
0.000129999
0.00016661
0.000151564
9.16569e-05
4.81465e-05
4.80053e-05
1.89639e-05
-0.000115231
-0.000237286
-0.000241157
-0.000156085
-5.49208e-05
-6.78723e-06
3.12756e-06
2.26754e-05
3.29399e-05
4.35427e-06
-2.95195e-05
-2.64532e-05
2.18694e-05
7.83735e-05
9.12264e-05
5.82645e-05
3.62103e-05
4.757e-05
2.62157e-05
-4.04836e-05
-8.99257e-05
-9.59355e-05
-5.30272e-05
5.19507e-05
0.000196219
0.000256949
0.000157713
1.30679e-05
-5.40876e-05
-2.14557e-05
4.79153e-05
8.48715e-05
9.1375e-05
0.000124809
0.000168558
0.000160533
0.000107753
6.52249e-05
5.96101e-05
4.88757e-05
-5.27936e-05
-0.000189997
-0.000225581
-0.000141766
-6.25209e-05
-1.03785e-05
4.63125e-07
1.2641e-05
2.43153e-05
4.58791e-06
-2.95876e-05
-2.82749e-05
1.8723e-05
7.63448e-05
8.35379e-05
3.50161e-05
-1.00169e-06
1.50534e-05
1.06225e-05
-3.92759e-05
-6.92956e-05
-5.68324e-05
-2.8709e-05
4.70352e-05
0.000184322
0.000288336
0.000225443
7.60436e-05
-1.59717e-05
-1.77851e-05
2.33569e-05
5.86511e-05
8.19346e-05
0.000127008
0.000177351
0.000174493
0.000127664
8.52127e-05
6.96395e-05
6.39548e-05
-1.82416e-06
-0.00012872
-0.000187404
-0.000104464
-5.23381e-05
-4.11946e-06
6.20575e-06
7.01148e-06
1.32035e-05
1.27334e-07
-2.99223e-05
-3.05689e-05
1.93421e-05
8.04907e-05
9.88625e-05
5.58144e-05
9.45776e-06
1.06212e-05
5.75379e-06
-4.01992e-05
-6.99309e-05
-4.84863e-05
-2.40284e-05
2.71614e-05
0.000145632
0.000268129
0.00025496
0.000122383
1.21098e-05
-2.15729e-05
-1.21414e-06
3.75493e-05
7.47706e-05
0.000120953
0.000168539
0.000173155
0.000140303
0.000105018
7.60139e-05
6.61989e-05
3.2701e-05
-6.21828e-05
-0.000125461
-6.09907e-05
-4.15564e-05
2.77924e-06
1.53509e-05
2.96957e-06
-1.1053e-06
-7.22614e-06
-2.22867e-05
-2.65683e-05
1.41382e-05
7.01231e-05
9.69272e-05
7.34504e-05
3.18657e-05
1.88226e-05
5.52995e-06
-4.68378e-05
-8.46756e-05
-4.98761e-05
-1.21952e-05
1.10705e-05
0.000110588
0.000233443
0.000259487
0.0001646
4.55555e-05
-2.28262e-05
-2.43508e-05
1.34039e-05
5.54769e-05
0.000100587
0.000151608
0.000172243
0.000148616
0.000109005
7.38291e-05
6.30438e-05
5.03203e-05
-4.0853e-06
-5.26198e-05
-3.10153e-05
-2.74585e-05
1.07366e-05
2.69745e-05
5.53517e-06
-1.64483e-05
-3.15109e-05
-3.5127e-05
-3.01244e-05
5.66589e-06
6.09868e-05
8.95031e-05
7.71084e-05
4.88016e-05
3.32027e-05
1.32193e-05
-3.83147e-05
-7.51883e-05
-2.91928e-05
2.67549e-05
2.46408e-05
7.9655e-05
0.000182192
0.000224156
0.000174286
8.13002e-05
4.88478e-06
-2.62137e-05
-7.13975e-06
3.92956e-05
8.73057e-05
0.000124526
0.000146824
0.000148542
0.000122661
7.83832e-05
6.17254e-05
6.16006e-05
2.71896e-05
-1.10444e-05
-2.83881e-06
-2.19277e-05
6.92798e-06
2.97272e-05
5.94808e-06
-2.73642e-05
-4.51175e-05
-4.26768e-05
-3.29837e-05
-2.95805e-06
5.80616e-05
0.000100972
8.8837e-05
4.94276e-05
2.79363e-05
8.99331e-06
-3.94712e-05
-6.90927e-05
-2.01642e-05
3.8464e-05
3.7859e-05
6.2036e-05
0.000138492
0.00018495
0.000160094
7.97658e-05
6.82724e-06
-1.93872e-05
9.77545e-07
4.41623e-05
9.70906e-05
0.000138675
0.000148909
0.000133017
9.65118e-05
5.48512e-05
4.17087e-05
5.22248e-05
4.65937e-05
2.83777e-05
1.2337e-05
7.59431e-06
1.94278e-05
2.20938e-05
-6.51591e-06
-4.63477e-05
-7.56073e-05
-7.89484e-05
-6.06238e-05
-2.69166e-05
3.195e-05
9.36006e-05
0.000107476
7.82335e-05
5.19383e-05
3.13643e-05
-8.7294e-06
-3.93657e-05
-8.34178e-06
3.69774e-05
4.18379e-05
6.67413e-05
0.000133027
0.000166774
0.0001422
7.83644e-05
1.96119e-05
-6.68972e-06
3.55011e-06
3.36213e-05
8.1383e-05
0.000135219
0.0001557
0.000140049
9.54646e-05
3.76913e-05
1.20594e-05
2.44672e-05
3.16836e-05
2.3918e-05
-4.16145e-06
-2.9048e-06
2.23218e-05
3.23072e-05
6.89037e-06
-2.75211e-05
-5.76104e-05
-7.76119e-05
-8.29016e-05
-7.00897e-05
-2.76677e-05
3.62397e-05
7.03741e-05
5.5028e-05
4.33498e-05
5.41237e-05
3.85915e-05
-8.4241e-06
-1.97605e-05
1.15142e-05
2.22189e-05
4.38662e-05
0.00011474
0.000155382
0.000118199
5.10298e-05
4.20732e-06
-1.39878e-05
-7.47532e-06
1.93055e-05
6.42738e-05
0.000117322
0.000135367
0.000110091
7.3728e-05
3.38771e-05
3.1381e-06
1.32309e-06
1.17603e-05
9.13746e-06
3.83398e-06
9.58729e-06
1.38977e-05
7.27148e-06
-1.3473e-05
-3.25639e-05
-4.81463e-05
-6.65578e-05
-8.24398e-05
-8.06791e-05
-5.81423e-05
-1.68524e-05
2.63155e-05
3.46776e-05
2.28359e-05
2.96329e-05
3.87023e-05
1.25114e-05
-2.77719e-05
-2.42206e-05
1.35675e-05
6.05399e-05
0.000119234
0.000145291
9.38481e-05
5.20211e-06
-5.31503e-05
-6.15676e-05
-3.57187e-05
5.94879e-06
5.30451e-05
0.000102396
0.000135237
0.000131093
9.97442e-05
5.19115e-05
-4.14939e-07
-2.94651e-05
-2.64934e-05
-9.28296e-06
-2.74872e-06
9.65328e-06
1.79702e-05
1.24969e-05
-4.12034e-06
-2.21699e-05
-3.84872e-05
-5.26721e-05
-6.26482e-05
-6.70788e-05
-6.55094e-05
-5.42614e-05
-2.72482e-05
5.55133e-06
2.55251e-05
3.51449e-05
3.84867e-05
2.25075e-05
-3.6111e-06
-1.00182e-05
6.59073e-06
4.86359e-05
0.000117216
0.000156097
0.00011402
1.563e-05
-7.19262e-05
-0.000101308
-7.19935e-05
-1.12682e-05
5.70325e-05
0.000110074
0.000123942
0.000103954
8.93582e-05
9.28756e-05
8.0706e-05
4.03398e-05
3.83125e-06
-8.26045e-06
-2.3421e-05
-2.61695e-05
-1.93371e-05
-1.26782e-05
-7.89948e-06
-1.12433e-05
-2.7474e-05
-4.40505e-05
-4.51193e-05
-3.35978e-05
-2.47035e-05
-2.52727e-05
-2.54373e-05
-1.17994e-05
1.11279e-05
2.81596e-05
3.3575e-05
2.73249e-05
1.5084e-05
1.14792e-05
2.23248e-05
4.74915e-05
8.97654e-05
0.000120504
0.000100879
3.83344e-05
-2.54388e-05
-5.73636e-05
-4.71931e-05
-4.18211e-06
5.16023e-05
9.81133e-05
0.000115233
0.000102989
8.54622e-05
7.75288e-05
6.91993e-05
4.85598e-05
2.0577e-05
-5.6333e-06
-4.24496e-05
-2.93988e-05
-1.06981e-05
4.31584e-06
1.41728e-05
1.43177e-05
-4.96748e-07
-2.01469e-05
-3.05274e-05
-3.55381e-05
-3.74234e-05
-2.51593e-05
-3.45642e-06
8.6467e-06
1.43034e-05
2.6715e-05
3.65741e-05
3.2586e-05
2.24234e-05
1.45004e-05
1.32463e-05
3.15016e-05
6.97407e-05
9.89723e-05
8.75672e-05
3.64185e-05
-2.09496e-05
-4.96827e-05
-4.33104e-05
-1.42494e-05
2.66188e-05
6.36113e-05
7.91949e-05
7.78078e-05
8.02291e-05
8.87852e-05
8.24849e-05
4.7578e-05
-9.74892e-07
-3.51945e-05
-9.24427e-05
-8.46843e-05
-5.56449e-05
-2.49289e-05
-3.77096e-06
3.52013e-06
-3.88175e-06
-1.73231e-05
-1.97885e-05
-8.6336e-06
-2.37699e-06
-1.04535e-05
-1.45269e-05
3.48609e-06
3.58373e-05
6.26848e-05
7.53586e-05
6.8945e-05
4.34365e-05
2.01026e-05
7.94747e-06
3.36324e-07
1.28741e-05
4.747e-05
6.61502e-05
4.17754e-05
-5.44988e-06
-3.56252e-05
-3.49108e-05
-1.32789e-05
1.98027e-05
5.13441e-05
6.57551e-05
6.75312e-05
7.3123e-05
8.27548e-05
8.06206e-05
4.97281e-05
-8.07136e-06
-6.4827e-05
-0.000159152
-8.52475e-05
-1.29086e-05
4.58943e-05
7.51826e-05
5.83849e-05
1.33263e-05
-1.96278e-05
-4.2935e-06
4.76315e-05
8.62447e-05
7.82133e-05
3.29747e-05
-1.36668e-07
-5.54143e-06
-1.39247e-05
-3.8487e-05
-7.39021e-05
-0.000101467
-8.50535e-05
-1.33583e-05
7.33411e-05
0.000129763
0.000157111
0.000169352
0.000161335
0.000159047
0.000179376
0.000199278
0.000197057
0.000186943
0.000193646
0.000191869
0.00016701
0.00015711
0.000137393
4.56e-05
-8.9425e-05
-0.000188816
-0.000208042
-0.000161917
-8.8675e-05
-1.60826e-05
4.3618e-05
7.38526e-05
5.75818e-05
1.26119e-05
-2.05684e-05
-5.39375e-06
4.68426e-05
8.59864e-05
7.82608e-05
3.28747e-05
-5.28604e-07
-5.84252e-06
-1.38495e-05
-3.80991e-05
-7.35953e-05
-0.000102002
-8.70727e-05
-1.67654e-05
6.92048e-05
0.000125515
0.000153232
0.000166508
0.000159691
0.00015802
0.000178474
0.00019839
0.000196335
0.000186551
0.000194022
0.000193371
0.000169159
0.000159904
0.000141636
5.08497e-05
-8.5066e-05
-0.00018696
-0.000208911
-0.000166667
-9.23987e-05
-1.855e-05
4.24138e-05
7.34014e-05
5.69942e-05
1.13206e-05
-2.23608e-05
-6.85124e-06
4.63637e-05
8.61372e-05
7.83931e-05
3.25657e-05
-1.07376e-06
-6.00597e-06
-1.35944e-05
-3.78517e-05
-7.3849e-05
-0.000103243
-8.92472e-05
-1.91458e-05
6.71599e-05
0.000123717
0.000151433
0.000165378
0.00015945
0.000157793
0.000177605
0.000196991
0.000195347
0.000186619
0.000195227
0.00019521
0.000170744
0.000161944
0.000144989
5.35801e-05
-8.55112e-05
-0.00019065
-0.000213901
-0.000173529
-9.75648e-05
-2.22071e-05
4.04854e-05
7.26116e-05
5.62006e-05
9.41121e-06
-2.53603e-05
-9.47494e-06
4.5234e-05
8.60008e-05
7.82781e-05
3.18579e-05
-1.96789e-06
-6.12324e-06
-1.30434e-05
-3.74547e-05
-7.42805e-05
-0.000104813
-9.14992e-05
-2.10894e-05
6.58004e-05
0.000122409
0.000149825
0.000164344
0.000159276
0.000157442
0.000176259
0.000194499
0.000192991
0.000185943
0.000196722
0.000197781
0.000172662
0.00016444
0.000149159
5.57912e-05
-8.90052e-05
-0.000198715
-0.000222438
-0.000182011
-0.000103941
-2.76031e-05
3.64573e-05
7.01597e-05
5.45589e-05
7.54489e-06
-2.81556e-05
-1.26657e-05
4.29859e-05
8.48662e-05
7.74168e-05
3.05035e-05
-3.32651e-06
-6.21612e-06
-1.2169e-05
-3.68456e-05
-7.47618e-05
-0.000106387
-9.31462e-05
-2.17819e-05
6.56855e-05
0.000121735
0.000147947
0.000162466
0.000158809
0.000157168
0.000175047
0.000191801
0.000189615
0.000183636
0.000197181
0.000200171
0.000174396
0.000167123
0.000153995
5.71068e-05
-9.62496e-05
-0.00021171
-0.000234426
-0.000191647
-0.000111889
-3.64222e-05
2.86114e-05
6.46113e-05
5.14186e-05
6.38844e-06
-2.91259e-05
-1.4954e-05
3.98191e-05
8.18497e-05
7.54067e-05
2.84403e-05
-5.29704e-06
-6.36087e-06
-1.07983e-05
-3.57512e-05
-7.51704e-05
-0.000108283
-9.48056e-05
-2.17451e-05
6.53723e-05
0.000118486
0.000143194
0.000159298
0.000156997
0.000155615
0.00017357
0.00019005
0.00018707
0.000180041
0.000194823
0.00020058
0.00017534
0.000170651
0.000161284
5.97284e-05
-0.000105406
-0.000228877
-0.000249761
-0.000201797
-0.000118464
-4.72491e-05
1.49251e-05
5.29737e-05
4.36465e-05
3.83461e-06
-2.73526e-05
-1.28584e-05
3.84024e-05
7.68642e-05
7.11242e-05
2.58621e-05
-7.21082e-06
-6.47399e-06
-9.21418e-06
-3.44159e-05
-7.60106e-05
-0.000112306
-0.000100169
-2.50724e-05
6.29018e-05
0.000110515
0.000127511
0.000144364
0.000148957
0.000152596
0.000172914
0.000189896
0.000186568
0.000177328
0.000189264
0.000195784
0.000172906
0.00017489
0.000174307
6.9606e-05
-0.000109961
-0.000246128
-0.000267869
-0.000213376
-0.00012298
-5.34451e-05
2.93185e-06
4.07677e-05
3.44868e-05
-1.72908e-06
-2.96782e-05
-1.47536e-05
3.69698e-05
7.30242e-05
6.61427e-05
2.2713e-05
-9.47375e-06
-7.00706e-06
-8.05475e-06
-3.36681e-05
-7.82835e-05
-0.000120318
-0.000113408
-3.72382e-05
5.47991e-05
9.97925e-05
0.00010801
0.000119214
0.00012641
0.000136852
0.000166559
0.00019007
0.000189583
0.000178337
0.000183919
0.000185413
0.000162613
0.000175892
0.000193326
9.17946e-05
-0.000100813
-0.000252419
-0.000283099
-0.000223261
-0.000128121
-5.7262e-05
-5.14486e-06
3.13142e-05
2.83939e-05
-4.44119e-06
-3.16087e-05
-2.14096e-05
2.64013e-05
6.35749e-05
5.96457e-05
2.02233e-05
-1.04708e-05
-7.68249e-06
-8.73019e-06
-3.57925e-05
-8.34202e-05
-0.000131551
-0.000133157
-5.83126e-05
4.16573e-05
8.95679e-05
8.98272e-05
9.23545e-05
9.75322e-05
0.000111101
0.000151641
0.000184772
0.000188212
0.000178163
0.000180174
0.000174881
0.000146059
0.000168176
0.00021341
0.000125698
-7.78349e-05
-0.000244401
-0.000288385
-0.000231073
-0.000134692
-6.29813e-05
-1.42844e-05
2.16769e-05
2.21575e-05
-7.00924e-06
-3.13786e-05
-2.34675e-05
1.69144e-05
5.01108e-05
4.87715e-05
1.56947e-05
-1.15882e-05
-8.29901e-06
-1.02073e-05
-3.9843e-05
-8.98681e-05
-0.000140361
-0.000148721
-7.91683e-05
2.6161e-05
8.06599e-05
7.66575e-05
6.80838e-05
6.49613e-05
7.92109e-05
0.000134377
0.000182262
0.000188692
0.000176902
0.000178062
0.000169513
0.000131911
0.000151494
0.000224439
0.000166056
-4.35016e-05
-0.000228638
-0.000287523
-0.000241791
-0.000144984
-6.88415e-05
-2.11144e-05
1.42322e-05
1.73341e-05
-8.61008e-06
-3.09898e-05
-2.45418e-05
1.0348e-05
3.69409e-05
3.38753e-05
5.15062e-06
-1.6651e-05
-1.01773e-05
-1.3069e-05
-4.67859e-05
-9.76246e-05
-0.000142869
-0.000149285
-8.48715e-05
2.08575e-05
7.85411e-05
6.94858e-05
4.95292e-05
3.63816e-05
4.73432e-05
0.000113478
0.000177307
0.000192561
0.000182188
0.000181101
0.00017451
0.000134158
0.000143216
0.000227192
0.000205142
2.19287e-06
-0.00020528
-0.000285581
-0.000249578
-0.000161292
-8.22807e-05
-3.0323e-05
8.79004e-06
1.47971e-05
-1.22485e-05
-3.65615e-05
-3.03248e-05
3.78189e-06
2.60598e-05
1.75725e-05
-1.04905e-05
-3.00971e-05
-2.06975e-05
-2.08991e-05
-5.4446e-05
-0.000103701
-0.000138227
-0.000131899
-6.93449e-05
3.10001e-05
8.90234e-05
7.66464e-05
4.52981e-05
1.90844e-05
1.7219e-05
8.35432e-05
0.000161694
0.000187443
0.000183899
0.000186271
0.000185298
0.000148787
0.000150745
0.00023406
0.000240747
5.7745e-05
-0.000166147
-0.000272977
-0.000246735
-0.000174113
-9.51359e-05
-4.20336e-05
-5.16338e-07
1.05894e-05
-1.64121e-05
-4.47521e-05
-3.73848e-05
1.33332e-06
2.53104e-05
1.07229e-05
-2.20497e-05
-4.21023e-05
-3.30748e-05
-3.3037e-05
-6.49007e-05
-0.000109486
-0.00013127
-0.000110312
-4.64087e-05
4.81856e-05
0.000106822
9.35082e-05
5.49918e-05
2.18666e-05
5.17522e-06
5.17042e-05
0.000130024
0.000174659
0.000186847
0.000193046
0.000194027
0.000166917
0.00016441
0.00023985
0.00026522
0.000111427
-0.000114157
-0.000243954
-0.000219509
-0.00017098
-0.000103316
-5.22825e-05
-9.84493e-06
6.32521e-06
-1.7465e-05
-4.69105e-05
-3.79875e-05
5.7416e-06
3.14092e-05
1.27292e-05
-2.58583e-05
-4.52062e-05
-3.41952e-05
-3.34716e-05
-6.41206e-05
-0.000102772
-0.000115894
-9.39951e-05
-4.12026e-05
4.47517e-05
0.000112781
0.000113143
7.56752e-05
3.49441e-05
7.53114e-06
3.06912e-05
9.29581e-05
0.000140014
0.000167256
0.000192569
0.000202674
0.000177521
0.0001656
0.00022618
0.000264006
0.000145332
-6.20081e-05
-0.000197443
-0.000173934
-0.000142329
-9.15412e-05
-5.32737e-05
-1.94258e-05
-1.68378e-06
-1.94786e-05
-4.55753e-05
-3.47043e-05
1.5325e-05
4.73815e-05
3.77024e-05
7.20494e-06
-1.53384e-05
-2.25844e-05
-4.1718e-05
-7.94279e-05
-0.000105277
-0.000101697
-8.01396e-05
-4.39672e-05
3.14958e-05
0.00010701
0.000123576
9.24502e-05
4.99585e-05
1.83987e-05
1.79515e-05
5.7382e-05
0.000106711
0.000138927
0.000164763
0.000186102
0.000176243
0.000163807
0.000193966
0.000230707
0.000155645
-1.71025e-05
-0.000145161
-0.000105073
-0.000103223
-7.93318e-05
-5.22666e-05
-2.5732e-05
-1.49956e-05
-2.95144e-05
-3.89045e-05
-2.14778e-05
2.30793e-05
5.45065e-05
5.06558e-05
2.67542e-05
3.30447e-06
-1.58307e-05
-5.40854e-05
-0.000107846
-0.000127296
-9.30174e-05
-5.30279e-05
-2.86545e-05
3.4953e-05
0.000113176
0.000144713
0.000119177
6.1353e-05
1.74271e-05
1.47955e-05
4.59474e-05
8.59553e-05
0.000124991
0.000162778
0.000193443
0.000185041
0.000158431
0.000169499
0.000194041
0.000147108
2.6476e-05
-7.11887e-05
-1.94675e-05
-1.35824e-05
-2.13158e-05
-3.83457e-05
-4.58289e-05
-4.33109e-05
-5.16204e-05
-5.05502e-05
-2.27721e-05
2.58114e-05
6.37762e-05
6.69725e-05
4.84558e-05
2.50839e-05
3.35087e-07
-3.69551e-05
-9.17208e-05
-0.000122369
-8.11352e-05
-2.01706e-05
3.72777e-07
4.12256e-05
0.000108613
0.000141135
0.000118699
6.72554e-05
2.58685e-05
1.27062e-05
3.33668e-05
7.43524e-05
0.000117121
0.000151391
0.000184278
0.000198638
0.000165115
0.000147057
0.000166526
0.00015052
5.77997e-05
-1.53819e-05
2.66244e-05
3.52645e-05
2.68655e-05
-4.9119e-06
-3.47067e-05
-5.05364e-05
-7.26835e-05
-7.20466e-05
-2.6007e-05
3.28269e-05
7.06969e-05
7.94734e-05
6.60912e-05
3.72339e-05
5.43751e-06
-2.34277e-05
-6.53298e-05
-0.000101424
-7.14019e-05
-2.30086e-06
3.11032e-05
5.94777e-05
0.000108624
0.000140986
0.000127319
7.56732e-05
2.93121e-05
1.44469e-05
3.24016e-05
6.92671e-05
0.000113956
0.000156824
0.000183022
0.000180381
0.000143373
0.000111157
0.000122479
0.000126433
8.23716e-05
3.43336e-05
5.30763e-05
8.36141e-05
8.63001e-05
4.10306e-05
-2.44898e-05
-6.30964e-05
-8.26044e-05
-9.34714e-05
-7.20978e-05
-1.46262e-05
5.13376e-05
9.78887e-05
0.000103676
6.50897e-05
1.80455e-05
-8.00814e-06
-3.48021e-05
-6.78431e-05
-5.70721e-05
-2.46028e-06
4.50007e-05
8.66799e-05
0.00012819
0.00013896
0.00010914
6.54101e-05
3.36868e-05
1.78901e-05
2.68461e-05
5.56938e-05
9.67969e-05
0.000144063
0.000175708
0.000174625
0.000136824
8.28347e-05
6.55822e-05
8.23751e-05
7.1706e-05
4.37605e-05
3.83902e-05
4.47431e-05
5.32175e-05
4.986e-05
1.7402e-05
-2.81649e-05
-6.70836e-05
-9.4071e-05
-9.51226e-05
-6.09382e-05
-1.21416e-05
3.44306e-05
7.34458e-05
7.47956e-05
3.81181e-05
1.41767e-05
3.23744e-06
-3.06417e-05
-5.65306e-05
-3.92878e-05
1.41457e-06
6.24791e-05
0.000129568
0.000151599
0.000113173
6.28159e-05
3.42772e-05
2.05684e-05
2.39812e-05
4.29396e-05
7.24998e-05
0.00011308
0.000137612
0.000131994
0.000108341
7.10214e-05
4.13521e-05
4.77751e-05
5.74396e-05
4.45158e-05
3.95453e-05
5.87328e-05
6.28587e-05
3.44059e-05
-9.23629e-06
-4.20337e-05
-6.82047e-05
-9.72154e-05
-0.000114008
-9.83507e-05
-5.9324e-05
-1.59111e-05
2.61455e-05
4.94441e-05
4.20208e-05
2.31444e-05
6.36588e-06
-1.58967e-05
-3.71721e-05
-3.31033e-05
2.6506e-06
5.98504e-05
0.000114783
0.000131177
9.10263e-05
3.10376e-05
-2.92591e-06
-5.11236e-06
1.58866e-05
4.93422e-05
7.79244e-05
0.000100138
0.0001185
0.000125541
0.000113504
7.16766e-05
2.00994e-05
3.78098e-06
1.66121e-05
2.6913e-05
3.3957e-05
5.42154e-05
6.57212e-05
4.53176e-05
4.57607e-06
-2.76205e-05
-4.70296e-05
-6.62584e-05
-8.79154e-05
-0.000102344
-0.000101457
-8.4806e-05
-5.42997e-05
-1.7413e-05
1.08875e-05
2.3255e-05
2.07174e-05
7.57286e-06
-3.69478e-06
-3.17219e-06
1.39762e-05
5.63891e-05
0.000109582
0.000131364
0.000101009
3.81378e-05
-1.97713e-05
-3.99413e-05
-1.46853e-05
3.21763e-05
7.5147e-05
0.00010146
0.00010214
8.73641e-05
8.95905e-05
0.000101795
8.17222e-05
4.28524e-05
2.50442e-05
2.48159e-05
1.52986e-05
1.82292e-05
1.75121e-05
5.78616e-06
-8.86277e-06
-2.11813e-05
-3.30947e-05
-3.94458e-05
-3.40693e-05
-2.29132e-05
-2.02952e-05
-3.20748e-05
-4.48466e-05
-3.91214e-05
-1.56501e-05
4.93508e-06
7.4961e-06
-3.7565e-06
-8.66574e-06
4.03415e-06
2.52156e-05
5.19632e-05
8.56921e-05
0.000104376
8.42847e-05
3.28945e-05
-1.92788e-05
-4.31664e-05
-2.81253e-05
1.33664e-05
5.83165e-05
8.98367e-05
9.88117e-05
8.99267e-05
8.30408e-05
8.40958e-05
7.54166e-05
5.11122e-05
2.87945e-05
1.8062e-05
-1.34642e-05
-7.87716e-06
-1.63712e-07
1.52017e-06
3.63435e-06
4.88686e-06
-6.58082e-06
-2.59331e-05
-3.78888e-05
-3.91742e-05
-3.01986e-05
-1.28676e-05
1.37417e-06
5.32094e-06
7.54295e-06
1.46852e-05
1.92915e-05
1.61829e-05
1.05156e-05
8.5875e-06
1.6294e-05
3.79103e-05
6.55413e-05
8.25254e-05
7.35611e-05
3.4101e-05
-1.41451e-05
-3.68225e-05
-2.56456e-05
2.91886e-06
3.56319e-05
6.26011e-05
7.21775e-05
6.87695e-05
7.3151e-05
8.63841e-05
8.2426e-05
5.1734e-05
1.60827e-05
-6.26145e-06
-7.70586e-05
-7.76298e-05
-5.65801e-05
-2.95589e-05
-7.98729e-06
3.03626e-06
-3.61434e-07
-1.41459e-05
-2.04938e-05
-1.18635e-05
-3.97215e-06
-5.85537e-06
-2.9881e-06
1.68651e-05
4.48207e-05
6.40604e-05
6.84184e-05
5.75551e-05
3.3276e-05
1.1674e-05
6.1103e-06
1.17718e-05
2.85185e-05
5.64279e-05
7.10684e-05
4.80672e-05
6.81237e-06
-1.23303e-05
-4.88576e-06
9.64317e-06
2.78417e-05
4.89489e-05
6.1936e-05
6.68951e-05
7.54638e-05
8.70661e-05
8.39141e-05
5.10671e-05
-1.51762e-06
-4.94635e-05
-0.00012983
-0.000111538
-9.12016e-05
-4.90218e-05
1.05268e-05
3.86049e-05
1.86977e-05
-1.51481e-05
-1.61755e-05
1.33556e-05
3.28972e-05
2.36874e-05
2.21767e-06
-1.83229e-06
7.53152e-07
-2.05811e-05
-5.51697e-05
-7.69155e-05
-7.74523e-05
-5.29645e-05
1.07256e-05
9.96014e-05
0.000159671
0.000174203
0.000159768
0.000136425
0.000143211
0.000178964
0.000206731
0.000234649
0.000286909
0.000315377
0.000279717
0.000228146
0.000199943
0.000163255
9.85796e-05
2.07416e-05
-6.2401e-05
-0.000121953
-0.000128976
-0.000110976
-9.09548e-05
-4.92558e-05
1.02981e-05
3.89651e-05
1.96041e-05
-1.41465e-05
-1.53292e-05
1.41545e-05
3.36789e-05
2.42152e-05
2.23519e-06
-2.17873e-06
3.97512e-07
-2.10311e-05
-5.60235e-05
-7.82112e-05
-7.90293e-05
-5.49308e-05
8.12815e-06
9.67164e-05
0.000156802
0.00017127
0.000156875
0.000133434
0.000139883
0.000175402
0.000202784
0.000230156
0.000283186
0.000313876
0.000279873
0.000229009
0.000201767
0.000166307
0.000102419
2.46849e-05
-5.92152e-05
-0.000120123
-0.00013149
-0.000112903
-9.26715e-05
-5.09638e-05
9.32441e-06
3.90525e-05
2.00105e-05
-1.42706e-05
-1.59382e-05
1.37245e-05
3.35276e-05
2.39109e-05
1.68557e-06
-2.45036e-06
7.34051e-07
-2.07053e-05
-5.6397e-05
-7.92745e-05
-8.04834e-05
-5.6735e-05
6.17687e-06
9.53904e-05
0.000156054
0.000170581
0.000156204
0.000132084
0.000137262
0.000172099
0.000199331
0.000226917
0.000282273
0.000316451
0.000283598
0.000232257
0.000205229
0.000169841
0.000104902
2.56282e-05
-5.99919e-05
-0.000122366
-0.000136441
-0.000117212
-9.68473e-05
-5.49272e-05
6.82865e-06
3.83028e-05
1.97505e-05
-1.54725e-05
-1.81105e-05
1.17982e-05
3.22352e-05
2.2653e-05
3.73024e-07
-2.91691e-06
1.55649e-06
-1.97714e-05
-5.65179e-05
-8.04049e-05
-8.21123e-05
-5.86758e-05
4.3725e-06
9.4791e-05
0.000156224
0.000170582
0.000156231
0.000131342
0.000134759
0.00016808
0.000194096
0.000221189
0.000280239
0.000320654
0.000289953
0.000237777
0.000210964
0.00017531
0.000108162
2.61094e-05
-6.22666e-05
-0.000126856
-0.000143809
-0.000124
-0.000104001
-6.21526e-05
1.64255e-06
3.55562e-05
1.78148e-05
-1.84549e-05
-2.26239e-05
7.24459e-06
2.85983e-05
1.94734e-05
-2.3471e-06
-3.94458e-06
2.73943e-06
-1.81644e-05
-5.62801e-05
-8.15367e-05
-8.36978e-05
-6.02952e-05
3.14217e-06
9.53073e-05
0.000157671
0.000171503
0.000157021
0.000131641
0.000134085
0.000166431
0.000190156
0.000214548
0.000276892
0.000326009
0.00029904
0.000245904
0.000219346
0.000182779
0.000111724
2.54435e-05
-6.65139e-05
-0.000133734
-0.000152777
-0.000132382
-0.000113733
-7.29811e-05
-7.25857e-06
2.95531e-05
1.3279e-05
-2.32926e-05
-2.90862e-05
-4.44114e-07
2.11107e-05
1.28361e-05
-7.72706e-06
-6.51142e-06
3.80404e-06
-1.58009e-05
-5.53216e-05
-8.2591e-05
-8.62005e-05
-6.35456e-05
9.41894e-07
9.66144e-05
0.000160525
0.000172715
0.00015757
0.000131772
0.000134038
0.000167416
0.000190246
0.000209553
0.000271928
0.000330533
0.000309751
0.000256757
0.00023151
0.000193688
0.000116579
2.42887e-05
-7.2199e-05
-0.000142467
-0.000163208
-0.000140889
-0.000124422
-8.76761e-05
-2.16475e-05
1.86658e-05
5.45611e-06
-2.95634e-05
-3.59378e-05
-1.00118e-05
9.2335e-06
1.41633e-06
-1.68796e-05
-1.15925e-05
4.11521e-06
-1.26819e-05
-5.29085e-05
-8.22812e-05
-8.85914e-05
-6.96177e-05
-7.77476e-06
9.08051e-05
0.000159969
0.000173675
0.000157821
0.000130467
0.00013317
0.000169827
0.000193931
0.000207814
0.000266661
0.000332324
0.000319779
0.000269589
0.000248793
0.000210692
0.000124869
2.37098e-05
-7.90088e-05
-0.000153293
-0.000174601
-0.000149057
-0.000133424
-0.000102576
-3.95252e-05
1.80892e-06
-8.84052e-06
-3.96824e-05
-4.28974e-05
-1.85499e-05
-4.47574e-06
-1.48192e-05
-3.07162e-05
-1.96088e-05
3.41254e-06
-8.78418e-06
-4.88529e-05
-8.00883e-05
-9.03433e-05
-7.87445e-05
-2.39088e-05
7.53365e-05
0.000148981
0.000165791
0.000153565
0.000125533
0.000125448
0.000164011
0.000195935
0.000209021
0.000261528
0.000330694
0.000325315
0.000281279
0.000271331
0.000237119
0.000140124
2.63545e-05
-8.44566e-05
-0.000164286
-0.000185104
-0.000155588
-0.000138661
-0.000112872
-5.5476e-05
-1.62062e-05
-2.70565e-05
-5.56698e-05
-5.52344e-05
-3.0327e-05
-1.97215e-05
-3.26299e-05
-4.64762e-05
-2.88877e-05
2.34585e-06
-4.39677e-06
-4.4047e-05
-7.70707e-05
-9.21022e-05
-9.15655e-05
-4.84332e-05
5.17355e-05
0.000133683
0.000153392
0.000144312
0.000118659
0.000116449
0.000151048
0.000181692
0.000199745
0.000250055
0.000321828
0.000323381
0.00028601
0.000294408
0.000274623
0.000167535
3.57971e-05
-8.70426e-05
-0.000174146
-0.000191338
-0.000157599
-0.000140162
-0.000119103
-6.69601e-05
-3.10904e-05
-4.50378e-05
-7.48378e-05
-7.33468e-05
-4.98614e-05
-4.27725e-05
-5.54159e-05
-6.42958e-05